1
Lattice="20.0 0.0 0.0 0.0 20.0 0.0 0.0 0.0 20.0" Properties=species:S:1:pos:R:3:forces:R:3 config_type=IsolatedAtom energy=-10.7072114944458 pbc="F F F"
H        0.00000000       0.00000000       0.00000000      -0.00000000      -0.00000000      -0.00000000
1
Lattice="20.0 0.0 0.0 0.0 20.0 0.0 0.0 0.0 20.0" Properties=species:S:1:pos:R:3:forces:R:3 config_type=IsolatedAtom energy=-48.84744644165039 pbc="F F F"
C        0.00000000       0.00000000       0.00000000      -0.00000000      -0.00000000      -0.00000000
1
Lattice="20.0 0.0 0.0 0.0 20.0 0.0 0.0 0.0 20.0" Properties=species:S:1:pos:R:3:forces:R:3 config_type=IsolatedAtom energy=-102.57117462158203 pbc="F F F"
O        0.00000000       0.00000000       0.00000000      -0.00000000      -0.00000000      -0.00000000
24
Properties=species:S:1:pos:R:3:molID:I:1:forces:R:3 Nmols=3 Comp=VC(3) energy=-1601.528076171875 pbc="F F F"
C        0.45285612       3.01426506      -2.32330513        0       3.61833572      -1.09102559      -0.34697932
C       -0.65326887       3.32036090      -1.70732403        0      -1.75562859       0.64947152      -0.04622447
O       -0.82637185       2.63587189      -0.55307001        0       1.29417658      -0.97543675      -0.26820660
C        0.26635113       1.80842292      -0.42423803        0       1.27900851       0.79562289      -0.72044206
O        0.50404215       1.07012391       0.47730500        0      -0.94970298       1.52506399      -2.09255552
O        1.20395112       2.09938192      -1.54059100        0      -3.84616756       0.50337565       1.19668841
H        0.99488211       3.42258286      -3.19497991        0      -0.59716314      -0.41225034       0.69904715
H       -1.42996383       3.95062685      -2.12583590        0       0.03045449      -0.17335610       0.48438096
C        1.26803315       0.08491497       2.52308202        1       0.47955441      -1.25747216       2.40317893
C        0.71784115      -0.92897701       3.20788789        1      -5.24429607      -0.02316487       2.36055040
O        0.64552510      -2.02956414       2.40690088        1       1.09847462      -0.58015108       0.26979396
C        1.62233818      -1.82807600       1.46278298        1      -0.39779967      -2.23598862      -1.30402112
O        2.07954812      -2.65240097       0.69964898        1      -0.95959401       1.77354228       1.74554181
O        1.90033615      -0.53814703       1.52785194        1       2.94290090       1.00013638      -2.17880273
H        1.60973608       0.97362196       3.01618791        1      -0.02388012       0.27142513      -0.49524528
H       -0.23638988      -0.89091206       3.98334789        1       2.90310812       0.07404253      -1.79567385
C       -2.61711597      -1.50253499       0.01472599        2       0.34217060       2.23469925      -1.38554823
C       -1.65134692      -2.33284712      -0.23200200        2       2.46946073      -1.27143192      -0.70509017
O       -0.75461686      -1.64041007      -1.12287402        2       0.33830678      -2.33856630       1.04161072
C       -1.23930693      -0.42871904      -1.39447701        2       0.37361503      -0.20616800      -1.26246643
O       -0.76134789       0.30777997      -2.22421694        2      -0.88890070      -0.57078981       1.71480644
O       -2.37302589      -0.32890302      -0.69123900        2      -1.26061010       1.05782461       0.36421466
H       -3.27383399      -1.43262005       0.79540098        2      -1.63317800       0.14493564       1.42546666
H       -1.51131582      -3.31143308       0.29795000        2       0.38735387       1.10566270      -1.10402405
22
Properties=species:S:1:pos:R:3:molID:I:1:forces:R:3 Nmols=2 Comp=DMC(1):EC(1) energy=-1151.99462890625 pbc="F F F"
C        2.69088602       2.54591513      -2.12696218        0      -1.37826097       4.45985460       1.49273336
O        2.34068704       3.64524508      -1.67616713        0       0.61584496      -2.22697234      -0.76806575
O        1.94911408       1.49887204      -2.25967312        0       0.19437838      -1.32765543      -0.27438200
O        3.84929514       2.26471615      -2.58353305        0       2.24997997      -0.96580398      -0.52475607
C        0.58085805       1.60748911      -2.26327205        0      -1.66369629      -0.29157239      -1.07954741
C        4.93368006       3.14626217      -2.62285423        0       2.44642925      -0.82459295      -1.09160089
H        0.20010208       1.35155511      -1.32161117        0      -0.46174148      -0.39317015       1.73484015
H        0.13602108       2.57295012      -2.51098919        0       0.44366151       0.20160449      -0.33677930
H        0.19209708       0.83466810      -2.94893003        0       0.24198920       0.38458759      -0.04890668
H        5.82548094       2.54683304      -3.02168822        0      -1.00743508      -0.02353567       0.64774168
H        4.87149000       3.85138416      -3.42286325        0      -0.85268384       0.96717966      -0.25231618
H        5.33360624       3.57181811      -1.71259320        0      -0.82846653       0.04007676       0.50103849
C       -3.41220593      -1.40147686       1.27721584        1       3.65042138      -2.77282143       1.16168845
O       -2.92165089      -1.47329795       2.67879891        1      -1.31062067       1.28441942      -1.94279170
C       -2.61571789      -2.75121093       2.98010492        1       1.50504804       1.88900304       2.13658881
O       -3.01706386      -3.61698890       2.14714384        1      -0.69225907      -0.20152855      -3.76563931
C       -2.94653201      -2.85366082       0.89804888        1      -0.85200405      -1.05138898      -0.77589911
H       -4.42421579      -1.24309289       1.20551991        1      -2.04829669       0.50424546       0.19434634
H       -2.80409384      -0.83304894       0.58278483        1      -0.09716123       0.99497998       0.59715533
O       -1.86870396      -2.94726801       3.88132596        1       0.19121039      -0.55077207       1.08483326
H       -3.50762296      -3.30938387       0.07090886        1      -0.53723937      -0.15079165       0.65125519
H       -1.93009996      -2.85789800       0.47551787        1       0.19090134       0.05465458       0.65846205
25
Properties=species:S:1:pos:R:3:molID:I:1:forces:R:3 Nmols=2 Comp=DMC(1):PC(1) energy=-1237.265625 pbc="F F F"
C        2.67575073       2.86108518      -2.86082530        0      -1.17133355      -1.99023831       2.15524006
O        2.76785755       3.16294599      -1.37367737        0       2.79114294       3.29062271      -4.28803396
C        2.53783751       2.18929100      -0.59767431        0      -0.68889838       2.29974484       5.43612099
O        1.93164957       1.26053202      -1.20610726        0      -1.42728305      -3.44928455      -2.45915294
C        1.75701964       1.53768110      -2.68214726        0       1.62572765       0.84093451       1.87842965
C        1.82226360       3.92414308      -3.45830131        0      -0.54556465       0.31775939      -1.25130129
H        3.62236261       2.79383111      -3.48461127        0      -0.41265583      -0.49269420       1.43622351
O        2.62325168       2.39863515       0.62851471        0       0.12370086      -1.72578502      -2.89029670
H        0.69594961       1.78663802      -2.79194736        0       0.37066156      -0.26662657      -0.32254708
H        2.12722850       0.64140809      -3.18146920        0      -0.23445418       0.38148332      -0.20172213
H        0.94558364       4.07772589      -2.83702040        0       0.08654404       0.69385344       0.20707077
H        2.44793057       4.83902597      -3.65341330        0      -1.04306006      -0.77396691       0.11624163
H        1.39495564       3.45968413      -4.37784052        0       0.52547282       0.87419677       0.18372822
C       -2.77969742      -2.77740502       1.95494866        1       1.48408222       0.16214898      -1.72943032
O       -3.66863132      -2.42830992       2.60583663        1      -2.74905777       1.31672668       1.35930061
O       -2.29131937      -2.42984796       0.79584169        1      -0.99776411       3.15654683      -3.50507927
O       -1.89286339      -3.66918087       2.21758556        1       1.77926373      -2.98232174       1.77452087
C       -2.91089439      -1.28356600       0.07705668        1       1.81386161      -1.04177856      -0.81583679
C       -2.05939937      -4.26767588       3.43624568        1       0.88974863      -3.62580180       0.97430897
H       -3.72709346      -1.70948493      -0.53036433        1       0.46112162       0.51029724       0.26025370
H       -3.16581345      -0.57542592       0.80696666        1      -0.91035604       0.90372050       0.86630875
H       -2.09199142      -0.74095094      -0.52423334        1      -1.12996376      -1.22675848       0.48773634
H       -1.32394242      -5.09556913       3.62502956        1      -0.04088002       0.50140184      -0.98174733
H       -1.93663037      -3.67549205       4.25493479        1       0.80150187       2.83033395       2.19442344
H       -2.99357438      -4.73741913       3.66374469        1      -1.40155745      -0.50451565      -0.88475877
27
Properties=species:S:1:pos:R:3:molID:I:1:forces:R:3 Nmols=2 Comp=DMC(1):EMC(1) energy=-1265.399169921875 pbc="F F F"
C       -2.03106403       0.65746909       0.26760513        0       0.96747041      -0.36257145      -0.09677339
O       -1.07807493       0.48504212       1.01702011        0      -1.97931933       0.75227386      -2.01753497
O       -3.26775193       0.23020512       0.42069915        0      -0.55600643      -0.28680217      -0.41829777
O       -2.21094799       1.20861411      -0.95951784        0       2.62549257       0.13142264      -0.56234914
C       -3.54576588      -0.43989488       1.59327912        0      -0.46229601       0.82919091       2.16080642
C       -0.96694797       1.71850216      -1.62740982        0      -2.60128617      -0.95316982      -0.21286803
C       -5.02091789      -0.62569290       1.77413309        0      -2.71627665      -3.47178411      -1.04521513
H       -3.05448604      -1.41090190       1.60176313        0       0.39602152       0.00686896       0.27122730
H       -3.22410202       0.31734413       2.37260509        0       0.07868588      -1.22109461       0.08226043
H       -0.72410798       2.40959311      -0.88021588        0       1.29939461       1.48742139       0.15293908
H       -0.25252098       0.92709315      -1.77050185        0       0.17857400      -0.25423759       0.11324874
H       -5.35431385      -1.19761384       2.70942616        0       1.04772294       0.86657774      -1.09959173
H       -5.65353584       0.21069811       1.69021618        0      -0.03298122       1.53402400       0.23853520
H       -5.48677492      -1.27245092       0.88484311        0       1.36971855       0.88407880       1.51567602
H       -1.31561697       2.06881022      -2.61999083        0       0.33597445       0.04811689       0.91492760
C        2.86216998      -0.54789591      -0.30648586        1      -0.99393833       2.71909189       0.04584026
O        2.04342008       0.15615812       0.27660215        1       0.88223064      -2.21730375       0.56971169
O        3.26260614      -0.10306588      -1.49444783        1       0.77657962      -1.12396193      -0.46190667
O        3.59369302      -1.61061084      -0.04163986        1       0.24281317       0.38613775       0.03929114
C        2.62956214       0.98352611      -2.09231687        1      -0.36330068       0.98694193      -0.16534710
C        3.55574894      -2.15067077       1.29780114        1      -1.44864821       0.84249777      -1.44204640
H        1.88944602       0.64559013      -2.80296278        1      -0.22048393      -0.28260183      -0.27348918
H        2.08495712       1.70345008      -1.42564690        1       0.83792961      -0.55585063      -0.21390289
H        3.46013594       1.43517017      -2.62836289        1      -0.23187530       0.50261468      -0.04262620
H        4.11010695      -3.05958986       1.20176017        1       0.87134576       0.02282301       0.64326406
H        3.79936910      -1.30624783       1.98418510        1       0.03467864      -1.18158174      -0.08971167
H        2.50926495      -2.46688581       1.28762710        1      -0.33821869      -0.08912377       1.39393306
40
Properties=species:S:1:pos:R:3:molID:I:1:forces:R:3 Nmols=4 Comp=EC(4) energy=-2248.148681640625 pbc="F F F"
C       -0.45859733       3.28287387      -3.49498057        0      -0.78353143       2.00437212      -2.41102886
O        0.88948870       3.79171300      -3.25429845        0      -2.70902038      -0.48326612       0.90037048
C        1.77967572       2.90106797      -3.77192235        0       0.69773459       3.83083773      -0.16285017
O        1.17627263       1.93414199      -4.35922432        0      -0.09676957      -2.07658768      -0.68035358
C       -0.21532533       1.93098700      -4.04651356        0      -0.16966248      -3.23088956       0.11395615
H       -1.27154136       3.41099501      -2.76392436        0       1.08480549      -0.05456284       0.43937403
H       -0.92158234       3.83359003      -4.43693542        0       0.97630322      -0.08067328       1.46203887
O        2.90443778       3.31073308      -3.80425644        0       0.17781377      -1.68342102      -0.43717477
H       -0.37066332       1.10437799      -3.21093941        0      -0.00649038       1.15379357      -1.58471572
H       -0.76461333       1.62513399      -5.02565050        0       0.60183316       0.54697263       1.71279883
C       -3.80103922      -2.50376415       2.43770266        1      -0.90694380       0.52012902      -2.91483831
O       -3.38939834      -3.25377202       1.26028454        1       0.63611758      -0.70664853       0.60654998
C       -2.30445933      -3.99550915       1.61562252        1       3.01353455      -0.58438885      -2.60437632
O       -2.14457035      -4.05070019       2.94205546        1      -0.64021289       0.46502590      -0.34863454
C       -2.87330842      -2.91826797       3.46709847        1       1.35954726      -1.63359356       3.00866604
H       -3.50343823      -1.48718607       2.20085359        1      -0.73248088       0.56632638      -0.11691168
H       -4.90017223      -2.60740995       2.47806549        1       0.63679653       0.04348610       0.46418238
O       -1.42242634      -4.39646721       0.83060056        1      -3.41482449       1.01516056       2.30791974
H       -2.05277324      -2.11510110       3.58914661        1      -1.26157427      -0.95057511       0.77170181
H       -3.41370034      -3.34911704       4.41145039        1       1.20536160       1.25529683      -1.16613698
C        2.30157065       3.02082801      -0.87318546        2       1.45412254       0.43835950       0.05703193
O        1.55322373       4.09202099      -0.41163146        2      -0.86532092       0.41585636      -0.85129178
C        0.22185968       3.76526093      -0.52127045        2      -1.42085743       3.05917597       2.60444450
O        0.00528267       2.46501303      -0.45626047        2       2.93824816      -0.26645333      -2.01337957
C        1.41516268       1.88063395      -0.86391044        2      -3.70294690      -3.27822518       0.39920014
H        2.83828473       3.31009007      -1.79112947        2      -0.49752373      -0.22513667       0.56418860
H        3.08249879       2.85036993      -0.17078246        2       0.85675520      -0.10855427       0.71713161
O       -0.57856935       4.68077612      -0.37167346        2       1.09901607      -2.40602279      -0.90939438
H        1.33951473       1.28182793      -1.79590452        2      -0.19290394       1.09646380      -0.02974886
H        1.47189569       0.99151593      -0.16966246        2       0.55786532       1.37531376       0.09998071
C        0.88761669      -2.09321308       0.81132352        3      -3.72619486      -0.17924023      -1.33336163
O        0.03761967      -1.97608399       2.01637745        3       0.00003219       2.33817363      -0.99835920
C        0.60278767      -2.53470492       3.05735755        3       0.39087221      -2.14740753       0.61038899
O        1.52326167      -3.40426898       2.49319744        3       0.14621031      -1.11340415       1.92041659
C        1.51099765      -3.45389700       1.07032657        3       0.27731356       2.94258404       1.93395102
H        0.08297767      -2.01841211      -0.05692146        3       1.48762023      -0.47473231       1.44073319
H        1.59659469      -1.32058406       0.56207752        3       0.18518990       0.39980984       0.73082834
O        0.34869966      -2.52002215       4.24030066        3       0.48303676       0.48588708      -2.48842478
H        1.02420068      -4.25862026       0.65650052        3      -0.87968278      -1.76720595      -0.61923075
H        2.53591371      -3.38821101       0.90628552        3       1.74081099      -0.50203508      -1.19564176
30
Properties=species:S:1:pos:R:3:molID:I:1:forces:R:3 Nmols=3 Comp=EC(3) energy=-1687.4490966796875 pbc="F F F"
C       -4.12463999      -1.38331330      -2.42669320        0      -0.12523627      -0.07376313       1.00860119
O       -4.85671186      -0.58527428      -3.29135799        0      -0.88449585       1.15188336      -0.71479648
C       -4.90107059      -1.11834621      -4.56758595        0      -0.97772431       0.63791865       1.13556266
O       -4.02001286      -2.08291125      -4.62866592        0       1.35408282      -0.88107371      -0.43206215
C       -3.24393392      -2.16244316      -3.42454815        0      -2.86430907      -0.92424428       0.94020844
H       -3.52626491      -0.84614927      -1.66835916        0      -0.04861036       0.32387817      -0.69046956
H       -4.85408068      -1.92120123      -1.77655911        0       0.38246560      -0.32464969      -0.68416017
O       -5.69529676      -0.78748024      -5.39322805        0       0.83907628      -0.19154167       0.49481487
H       -2.31512570      -1.72622728      -3.47138715        0       2.10148859       0.85901684      -0.67902243
H       -3.18651271      -3.17717123      -3.06380701        0       0.18975796      -0.55426502      -0.42818657
C        0.30978417      -0.65456825      -0.57457012        1       2.43922639      -0.77296913       0.88529241
O       -0.88102782      -1.13273120      -0.17320210        1      -2.68269634      -0.38644066       1.41727698
C       -1.14308679      -2.33998322      -0.65088713        1       1.46775544       0.62641305      -2.25913048
O       -0.15073483      -2.73469424      -1.49947405        1       2.01980352       0.68498588       0.87197340
C        0.98336518      -1.88646221      -1.22591114        1       0.64249098       0.62579155      -1.08881879
H        0.22791818       0.14389074      -1.23837507        1      -0.19362012       1.52152598      -0.98912352
H        0.85364717      -0.37587824       0.35009891        1       0.01444700       0.30123428      -0.49304676
O       -2.14108491      -2.93444228      -0.60166711        1      -1.98607659      -1.04730022       0.97173798
H        1.68404114      -1.63605428      -2.08693218        1      -1.53213918      -0.43311304       0.26179707
H        1.70171022      -2.23403931      -0.50286508        1      -0.15568642      -1.14328623       0.47155130
C        3.67231321       2.92746186       3.89800692        2      -0.42263436      -1.22314048       1.95554543
O        4.82196808       2.26200986       4.53771782        2      -2.77946663      -2.26342154      -0.79098701
C        5.47337103       3.08063078       5.26452112        2       3.23117447       2.15171671       0.94268042
O        5.27526140       4.36545181       4.83315992        2      -0.54581857      -0.49224162       0.03462243
C        4.28790140       4.29067278       3.83464384        2      -0.94175434       2.07130814      -0.66808259
H        3.43658614       2.38041568       2.99494600        2       0.35744435       0.24331981      -0.33216643
H        2.68566012       2.82074285       4.53663397        2       1.88072658       0.36014754      -0.61665946
O        6.34440804       2.87332678       6.06447983        2      -1.11330652      -0.44797665      -0.29372203
H        4.68179321       4.43559790       2.83605695        2       0.58293784       0.09688854      -0.31961274
H        3.64824009       5.17260456       3.99479294        2      -0.24930310      -0.49660069       0.08838189
28
Properties=species:S:1:pos:R:3:molID:I:1:forces:R:3 Nmols=2 Comp=EMC(1):PC(1) energy=-1323.509521484375 pbc="F F F"
C        1.72377765       3.32298040       1.23377502        0      -2.65117264      -2.43836761       1.34536493
O        2.63007474       3.96519041       1.53447902        0       3.79523134       1.75791144       1.02071226
O        1.29991972       2.14615750       1.84063101        0       0.12847149       1.17510939      -0.60945928
O        0.77926767       3.66562247       0.43865305        0      -2.39529419      -0.73028660      -1.57981658
C        1.90697467       1.75645757       3.04736710        0       0.50991791      -2.52174926      -0.39486241
C        0.88982570       4.74090958      -0.45231396        0       0.45291856       1.63424361       0.49454117
C        1.15173769       0.57867450       3.70658803        0      -1.15477347      -0.08324039       1.00167620
H        2.79456258       1.18240547       2.76503110        0       0.71429300       0.57145303      -0.35644919
H        2.20889378       2.54168057       3.70765495        0      -0.32522672       0.74070185       0.37264705
H        0.10335267       4.74462366      -1.20242596        0      -0.38109535      -0.16746384       0.37151453
H        0.86104167       5.71037769       0.15870804        0       0.05138740      -1.03583145      -0.87531763
H        1.82548165       0.10581652       4.46028614        0      -0.48779261       0.36898360      -0.61809987
H        0.22868967       0.92526150       4.24658728        0       0.84034121      -0.13391286      -0.55757654
H        0.82980067      -0.20090248       2.97496009        0       0.37235045       0.73471665       0.38235569
H        1.80501771       4.65960073      -1.02614200        0       0.53044331       0.12773299       0.00276940
C       -1.31142235      -4.00997543      -1.90670896        1      -0.38546214      -1.92916095      -0.87713861
O       -1.36890638      -2.83475542      -2.73198986        1      -1.82604933      -1.30737031       4.19794226
C       -1.54313231      -1.91736245      -1.71109498        1       4.09526634      -0.57159877      -0.98773313
O       -1.16352928      -2.32432938      -0.44027796        1      -2.53439522      -2.02510715      -0.59089506
C       -1.41685629      -3.77515841      -0.40252295        1       0.65798646       1.29542398       0.20751679
C       -2.38931227      -5.01158953      -2.23772907        1      -0.07653558      -1.01296329      -1.11678028
H       -0.30356833      -4.38847160      -2.05719805        1       0.35249162      -0.48141634      -0.64111435
O       -1.39821637      -0.80781245      -2.05047894        1      -1.22846389       2.98414278       0.15745515
H       -2.34512043      -4.16522455       0.13714604        1       0.87783962       1.31517673      -0.85539997
H       -0.57648534      -4.34543562       0.01129304        1      -0.02603382       0.64623851       0.54336983
H       -3.37616634      -4.65697241      -2.00140500        1      -0.19976795       0.42467788       0.13493988
H       -2.36349630      -5.22382641      -3.30567098        1      -0.03046443      -0.01056105      -0.04258811
H       -2.28031039      -5.97883224      -1.71653998        1       0.32358801       0.67251790      -0.12957329
46
Properties=species:S:1:pos:R:3:molID:I:1:forces:R:3 Nmols=3 Comp=DEC(2):EC(1) energy=-2083.822998046875 pbc="F F F"
C        1.12228513       2.57065392       3.05553150        0      -1.13639331      -2.47999740      -2.36406946
O        0.89510715       3.33680701       3.90915251        0       0.04706901       2.03080416       1.91153979
O        0.83131516       1.22789502       3.08354163        0       1.12567484       2.42491436       4.81814098
O        1.47916710       2.80396104       1.84003460        0       0.78588331      -0.24235082      -1.95985651
C        0.86742717       0.93730795       4.75010538        0      -1.04840052      -1.27964449      -3.35982609
C        1.98150611       4.01263905       1.23323762        0       0.10495701       0.47515702       2.98249960
C        0.80585617      -0.58874100       4.48594856        0       0.39336252       0.95760727       1.56072092
H        1.87435615       1.08331895       5.15053034        0      -0.35157686       1.03922987      -0.10025005
H       -0.02357686       1.61593997       5.10627460        0       1.73284769      -1.85334992      -0.29241505
C        0.86050314       4.98110104       1.04421353        0       0.25903714       1.52937078       0.36021790
H        2.59138203       4.60207987       2.06282258        0       0.08479673      -1.50836802      -1.51568389
H        2.49448419       3.56533098       0.39430356        0       0.19061562       0.79816872      -0.12581682
H        1.30257308       5.96039391       0.89348656        0       0.38242051       0.23551106       0.34404719
H        0.26657715       4.89897490       0.20957758        0      -1.22007275      -1.10505009      -2.08901358
H        0.17814614       5.04733515       1.87895453        0       0.08559757      -0.24125917       0.48572963
H        1.16012108      -1.13257897       5.37814569        0      -0.81497735       0.12059647      -0.17360497
H       -0.23201686      -0.73150504       4.21799374        0       0.16665030      -0.90140903      -0.21674287
H        1.59177709      -0.83813405       3.75746059        0      -0.78749168       0.00006911      -0.26561588
C       -3.41360188      -0.98489702      -1.42369044        1       0.11587799      -2.70374227       1.08304036
O       -4.55164003      -0.98675704      -1.68807948        1      -2.76784301      -0.66815990      -2.37407207
O       -2.50612378      -1.95843303      -1.43353546        1      -0.70569003      -1.16510510      -1.15882373
O       -2.91195083      -0.18129502      -0.62358844        1       3.27958202       3.32686710       2.62951851
C       -2.94922781      -3.16452909      -2.04602051        1      -1.62177420       0.82765436      -1.61330020
C       -3.65715981       0.89645898      -0.14776742        1       1.30805635      -0.34425044       3.63219047
C       -1.73851287      -4.02535009      -1.99297738        1       0.18046582      -2.54004264      -0.17492178
H       -3.87312388      -3.66752005      -1.60215044        1       1.12634158       0.75794661       0.14233255
H       -3.32941294      -2.82905102      -3.10723448        1       0.92013025      -0.87684608       1.18620241
C       -2.66523385       1.63324594       0.88361657        1      -2.79618430       0.54316217      -0.09599805
H       -3.91746187       1.44909501      -0.97636640        1      -0.79483151       1.83626938      -1.39851189
H       -4.52412081       0.52065700       0.48019758        1       0.60854739       0.44841444      -0.71485722
H       -3.43014789       2.24482489       1.47997653        1       1.48718500      -0.67816156      -0.49717766
H       -2.09312892       0.97019100       1.50268054        1      -0.34668356      -0.74569565       0.37814629
H       -1.89375591       2.26521993       0.49221757        1      -0.15811259       0.47507876      -0.88564825
H       -2.09110880      -5.09659481      -2.20086837        1       0.74950147       1.40235937      -0.32351992
H       -0.93603188      -3.68115592      -2.69023538        1      -0.75322700      -0.46470940       0.59236962
H       -1.35541391      -4.14123487      -0.96314341        1       0.05529761       0.53169745      -0.39962828
C        2.30126524      -3.24978709      -3.27970552        2      -0.70837724       3.55523825       1.61310494
O        3.00183821      -1.84303808      -3.55832553        2      -0.21926546      -3.15144968      -0.50638735
C        2.96121526      -1.04488206      -2.52093434        2      -2.74366522      -2.23466754       0.31269646
O        2.09142613      -1.54451299      -1.57714641        2       0.53685164      -1.20658755       0.13085639
C        1.89760613      -2.98708797      -1.72157145        2       2.38854742       0.63567924      -0.64208734
H        1.30514014      -3.13057709      -3.81170249        2       1.42094326      -0.73641366      -0.04408103
H        3.03420115      -4.06249380      -3.52643442        2      -0.94827676       0.83858776       0.25921637
O        3.41751218       0.01574698      -2.43227243        2       1.45180702       2.22514153       0.16778529
H        0.90290713      -3.12530494      -1.34257340        2      -0.34138888      -0.45087326      -0.49787837
H        2.63837409      -3.52872992      -1.04472041        2      -0.72381467       0.56260800      -0.80056626
31
Properties=species:S:1:pos:R:3:molID:I:1:forces:R:3 Nmols=2 Comp=DEC(1):PC(1) energy=-1410.6419677734375 pbc="F F F"
C       -2.17536664      -0.12906668      -1.11784172        0       0.39669955       0.65162635      -1.01855040
O       -1.34424663      -0.81957370      -0.64080775        0       0.89955163      -1.12582147       0.94188356
O       -3.24678564       0.35303932      -0.51759273        0      -0.39526528       0.26470095       0.64798188
O       -2.10225153       0.32426533      -2.37789369        0      -2.09636927       1.12517095       0.54897380
C       -3.46582150       0.10677933       0.88375926        0      -0.53416896      -0.71212214       0.29032469