23
Properties=species:S:1:pos:R:3:molID:I:1:forces:R:3 Nmols=2 Comp=EMC(1):VC(1) energy=-1208.8287353515625 pbc="F F F"
C        1.40669906      -0.94852668       1.34895813        0       2.06160688      -1.36702192       1.34650230
O        2.40962720      -1.28579569       1.94060218        0      -1.03651214      -0.03006661       0.73635978
O        0.12933208      -1.04362166       1.73212218        0       0.87154078       0.10054117      -1.04009008
O        1.47688103      -0.50123066       0.16977718        0      -1.61231065       1.76576614      -3.92013741
C       -0.04094892      -1.35957861       3.04710722        0      -2.11998153      -3.72961903       2.07362556
C        2.63086009      -0.44012067      -0.69729584        0       0.20245802      -0.33145559       1.23848343
C       -1.63370895      -1.50622070       3.27897310        0       1.43398535       3.09778643      -5.93116331
H        0.40394607      -2.40141869       3.38785219        0      -0.59718895       1.36877751      -1.04312551
H        0.45089409      -0.68009967       3.66465807        0       0.34741545       1.56906736       1.28927219
H        3.36547112       0.15588234      -0.10162982        0      -0.06841433      -0.46830097      -0.91979063
H        2.91504097      -1.48023367      -0.91267079        0       0.33610660       0.25266927       0.24463026
H       -1.94975197      -1.75659466       4.21205616        0      -0.56277162      -1.28060329       1.89143133
H       -2.05149293      -0.44585866       3.06940317        0       0.52495301      -1.31760335       0.66171646
H       -1.99269390      -2.01510978       2.26033020        0       0.37589979       0.18165696       2.72069550
H        2.40328908      -0.00330166      -1.68040287        0      -0.18535459       0.21291202       0.63591385
C       -1.72449291       1.32071137      -0.47724482        1      -2.59534240      -2.43688536       1.31983149
O       -0.49731091       1.17084932      -0.94350183        1       2.22785330       1.13585830       0.87147021
C       -0.59555292       1.32678330      -2.25614190        1       4.54559231      -0.90581584      -4.09190273
O       -1.80939388       1.20327735      -2.66971779        1      -2.97257805      -0.75021094       0.73977065
C       -2.54717183       0.93277031      -1.49749577        1      -2.13683939       2.90454435      -1.40069771
O        0.29996908       1.35905635      -3.09270382        1      -0.93047905       0.42537552       2.32355809
H       -3.61379600       1.21128833      -1.72711182        1       1.41031075      -0.95677495       0.86933130
H       -1.99838686       1.11892533       0.56570417        1       0.48005068       0.55940288      -0.61568499
23
Properties=species:S:1:pos:R:3:molID:I:1:forces:R:3 Nmols=2 Comp=EMC(1):VC(1) energy=-1208.2657470703125 pbc="F F F"
C       -0.69763237       2.77908134       1.23040593        0      -3.34363246       3.14842415      -0.48688862
O        0.41091162       2.90825939       0.90179396        0       3.20811987      -1.86827767      -0.23560688
O       -1.54747343       1.82928336       1.18552589        0      -1.09234345      -0.04950094       0.87062931
O       -1.47622144       3.99724841       1.42502689        0       1.33560133      -1.93361247      -0.12453270
C       -1.05164540       0.55792034       1.01647294        0       2.88767767      -1.22819018       0.15906365
C       -0.58076239       5.05312920       1.23254991        0      -0.45171380       0.81716466       1.67736471
C       -2.08044529      -0.48666269       1.21495795        0      -0.32971716      -1.35361385       1.58643508
H       -0.58454442       0.48634732       0.04012394        0      -0.08621895      -0.03080451      -0.84132206
H       -0.13467740       0.35334331       1.69473493        0      -1.16649401       0.43736988      -0.18851656
H       -0.06260440       5.23490810       2.17521095        0       0.16122568       0.15362209       0.20070398
H        0.14888860       4.83289528       0.50576496        0       0.48614416      -0.03346282      -0.91718590
H       -1.73312235      -1.46158373       0.79107195        0       0.16090822       0.51893711       1.16924918
H       -2.35824633      -0.45531067       2.34884787        0       0.32093549      -0.65911776      -2.07212520
H       -2.94100738      -0.36219668       0.61415994        0      -1.21629953       0.74672610      -0.26720095
H       -1.12611735       5.90846729       0.99187595        0      -0.87419343       1.33433533      -0.53006721
C       -0.08214340      -3.62099671      -1.75664902        1       3.71345067      -1.52529788      -0.00014412
O        0.70271158      -2.58156061      -2.27889895        1      -4.25614786      -0.72969198       0.32456326
C        1.51702058      -2.24412274      -1.30315304        1       2.68991280      -2.77254653      -1.71405911
O        1.84426665      -3.32881665      -0.58488607        1      -3.39026332      -2.93332005      -0.14007950
C        0.80931163      -4.41899586      -1.06022000        1       0.34580582       3.09163189       2.03969407
O        2.26134372      -1.36615074      -1.48889709        1       1.48930240       3.37626553       1.01553309
H        0.68980759      -5.35269451      -0.45185906        1       0.44275329       1.37981677      -0.98000050
H       -0.94944340      -3.98191357      -2.21206117        1      -1.03481364       0.11314252      -0.54550701
22
Properties=species:S:1:pos:R:3:molID:I:1:forces:R:3 Nmols=2 Comp=DMC(1):EC(1) energy=-1152.788818359375 pbc="F F F"
C        3.61284208      -2.07550406       0.22518750        0      -1.91794908      -1.20122755      -1.47741354
C        3.75244713      -3.59650588       0.06730349        0       0.73245949       0.17740369      -1.44565630
O        3.49376106      -3.82976699      -1.34206152        0       0.42704356       0.15304995       1.20319152
C        3.66125512      -2.66054893      -1.99677956        0      -1.73060870      -0.86366260      -1.78033566
O        3.62495208      -2.64322686      -3.21021342        0       0.58116525       0.66777444       2.26504993
O        3.58672094      -1.63819695      -1.13761151        0       1.03107834       0.57887065      -0.10657692
H        2.69311810      -1.68178594       0.65247649        0      -0.21577621      -0.30434397       0.13477479
H        4.39196014      -1.77501500       0.83347249        0       1.75725496       1.17687774       0.67308313
H        4.79914284      -3.87108588       0.18849850        0       0.31674731      -0.02675676       0.23102790
H        3.20638895      -4.23945999       0.70763350        0      -0.98141521      -0.35798520       0.30285490
C       -3.46759295       0.39978606       1.80026948        1       1.58249259       0.04871380       0.19312477
O       -2.97357607       1.54546702       1.06417453        1      -1.40260553       0.64324367       0.18366885
C       -3.68755794       2.70816302       1.22221446        1       0.42362261      -0.82886654       0.37101126
O       -4.68780279       2.74251199       1.89068353        1       0.57688427       0.60526752      -0.69057107
O       -3.02453804       3.67995095       0.56466550        1      -0.14235699      -1.62428927       0.11000931
C       -3.40832901       5.01135302       0.69437551        1      -0.47768709       1.36805320       0.05291577
H       -2.75606489      -0.34492496       1.41046655        1      -0.47821158      -0.09658423       0.29019359
H       -3.22423792       0.57276303       2.88537145        1      -0.57883847      -0.18524039      -0.78384030
H       -4.49957609       0.04107006       1.62627149        1       0.48146528       0.72281313      -0.05263433
H       -3.64559507       5.22525692       1.76454043        1      -0.22045988       0.04580817      -0.66194016
H       -2.52239585       5.64242887       0.43704748        1      -0.67960703      -0.49922171      -0.01112738
H       -4.26611900       5.24361420      -0.02387951        1       0.91530168      -0.19969767       0.99918950
10
Properties=species:S:1:pos:R:3:molID:I:1:forces:R:3 Nmols=1 Comp=EC(1) energy=-562.1901245117188 pbc="F F F"
C        0.04702185       0.83415061      -1.35688162        0      -0.06886685       0.45115924      -1.60166883
O       -0.50411916       0.92041564      -0.09821067        0      -1.83429265       1.25728917       0.46842539
C       -0.22546014      -0.08585037       0.71164131        0      -0.01566201       0.64584124       2.76451373
O        0.56264788      -0.94790435       0.08703933        0       0.41880098      -1.16735935       0.55974579
C        0.66519684      -0.67460239      -1.26913261        0      -1.69157243       1.70457554      -1.22399712
H       -0.69738817       1.32375765      -2.22990465        0       1.40566576      -1.99845028       1.96138477
H        0.84714788       1.58321857      -1.37349868        0       0.35818097      -0.38590020      -0.19692698
O       -0.53938913      -0.08326737       1.89579630        0       0.69024342      -0.50436950      -2.96526766
H        0.02858885      -1.36701536      -1.84039462        0       0.19348997       0.18806082       0.09599985
H        1.65750480      -0.65968937      -1.67245662        0       0.54401278      -0.19084688       0.13779092
34
Properties=species:S:1:pos:R:3:molID:I:1:forces:R:3 Nmols=3 Comp=DEC(1):VC(2) energy=-1828.25048828125 pbc="F F F"
C       -0.09173039      -1.03795123       1.13215828        0       0.31381941       1.99762094       0.19526619
O        0.66122359       0.21716379       1.06796718        0      -1.57222795      -2.63263392       0.01367669
C        2.00051570      -0.15963122       1.04819417        0      -5.53981733      -1.74414420       0.10794275
O        2.12524271      -1.43898916       1.02832723        0      -1.40142238      -2.51313877      -0.28559923
C        0.82325763      -1.99034119       1.03538823        0       1.37753797      -3.17806363       0.18734694
O        2.79736471       0.62670475       1.13556421        0       5.72253799       4.95784903       0.28790689
H        0.89998060      -3.19638634       1.03570819        0      -0.72189385       3.26188374      -0.02655871
H       -1.19878638      -0.96512020       1.35657227        0       1.80625260      -0.14173691      -0.49894899
C       -0.41216639       2.13632989      -4.04738474        1      -3.30974197       0.29354340       1.67731047
O       -1.54790235       1.62400174      -3.95587182        1       3.28730106       0.94710517      -0.41020015
O        0.27796960       2.39783573      -5.12207270        1       0.31153560      -0.45688176      -0.33646941
O        0.20427561       2.77221179      -3.01263165        1      -0.37746060       0.51700890      -0.60379183
C       -0.13921839       1.75725079      -6.37238789        1      -0.03833300       2.32992578       0.55967951
C       -0.32927039       2.62372971      -1.66351080        1       0.72171688      -1.87794089      -0.50823808
C        1.19375861       1.73544383      -7.19138670        1      -2.01506066      -0.40993267       0.14668047
H       -0.50711936       0.80607575      -6.08773184        1      -0.05392240      -1.35997236      -0.27718383
H       -1.02609134       2.38092375      -6.65819073        1       0.94015592      -0.35612237      -0.84563440
C        0.74890864       3.15720272      -0.68642378        1       0.37875903       3.43836737      -1.57690418
H       -1.45247042       2.74032784      -1.61172080        1       1.21363902       1.08215678       0.32647178
H       -0.24573039       1.54906976      -1.64900982        1      -0.08539957      -1.02558267       1.20361876
H        0.41137761       3.41774178       0.31939122        1      -0.47958887      -0.26192585      -0.50592816
H        1.72883761       2.71294188      -0.58148378        1      -0.40908319      -1.21590149      -0.23008570
H        1.13165760       4.14930296      -1.22746277        1      -1.15167403      -1.43687940       1.14472282
H        0.91526759       1.30510473      -8.22597790        1       1.08650541       0.71484232       1.80126667
H        1.72747660       2.70354986      -7.21263790        1      -0.66541260      -0.37485170      -0.50803608
H        1.76877558       1.13842678      -6.47950077        1       0.64540374      -0.54564917      -1.05834866
C       -1.03568435      -1.24044025       5.12450600        2      -2.56579351      -3.66888905       0.20890331
O       -0.75859940      -1.73307025       3.81813025        2      -2.06528115       0.16609997       4.33845615
C       -1.41239440      -2.91287422       3.89505816        2       0.64169979      -1.85738444      -2.40540433
O       -2.24688435      -3.16512823       4.90641403        2       1.15073311       2.96544266       1.79145598
C       -1.91975343      -2.14320517       5.82747746        2       2.20296717       1.70231748      -3.84349203
O       -1.15433335      -3.77282715       3.12227416        2       0.06700772      -0.84951460      -1.13032937
H       -2.43766642      -2.04236126       6.73720312        2      -0.25623128      -0.01768869       0.53154528
H       -0.57101941      -0.39238423       5.46437836        2       0.84077114       1.55067122       0.52890348
32
Properties=species:S:1:pos:R:3:molID:I:1:forces:R:3 Nmols=4 Comp=VC(4) energy=-2136.10205078125 pbc="F F F"
C       -0.18384601       2.39934206       2.87055969        0      -0.06037366       1.21739614       1.07499135
C       -1.00316405       3.14677811       2.14002562        0      -1.05983067       0.67139912      -0.30316424
O       -1.17628205       4.41016912       2.71089673        0       1.64930582      -1.99757171      -0.82362574
C       -0.12086101       4.43738317       3.60548162        0      -1.46734357       3.16483641       1.57741463
O        0.24541499       5.47160482       4.09773779        0       0.04691082      -1.22731769      -0.56487703
O        0.23488699       3.22132993       3.93537164        0       0.86346066      -1.66425240      -0.96548545
H        0.13492399       1.39397001       2.76868176        0       0.31734809      -0.40662912       0.24485835
H       -1.47591197       2.87969899       1.22259974        0      -0.35570353       0.42487597      -0.09729572
C        0.02037599       0.48658204      -1.62798727        1       0.56202841      -0.05278994       0.50114524
C       -0.25892201       1.33652198      -0.61137629        1      -0.53282428      -0.23209906      -0.21720794
O       -0.10946101       2.66759610      -1.08563530        1      -0.35766798      -1.72483587       0.55265927
C        0.27459899       2.57405710      -2.36491919        1       0.88494170      -0.66565514      -0.34547698
O        0.59739196       3.44374299      -3.10663629        1      -0.43799645      -0.05238414       0.41611052
O        0.39864299       1.23445106      -2.70981741        1      -0.47340077      -0.11384439       0.36631155
H        0.15245000      -0.63944596      -1.63558424        1       0.19255303       3.05331898      -0.75997126
H       -0.70971900       1.02950001       0.36996269        1       0.75558078       0.75590062      -1.33607459
C       -1.53499103      -2.18794107      -0.83939826        2       3.28578234      -1.57333410      -0.75128913
C       -2.65085101      -1.52059495      -0.90405232        2       0.26550794       3.09123087       1.40425634
O       -3.64232898      -2.19272709      -1.38567626        2      -1.73397171      -1.83422422      -1.17573917
C       -3.10100198      -3.38501406      -1.74439335        2      -0.70659882      -2.14865041      -0.84038019
O       -3.65989709      -4.32537079      -2.21766233        2      -0.37610519       0.62823439       0.07410121
O       -1.79078305      -3.43165493      -1.46657932        2       0.82026660       1.74712491       1.15132618
H       -0.46613801      -1.84036899      -0.73343331        2      -2.10918117      -1.73119235       0.54417419
H       -2.85133791      -0.50869095      -0.68429327        2      -0.07093844       0.72401696       0.27537453
C        2.04542804      -1.78058195       0.30450469        3      -1.03659272       0.98835826      -0.92686373
C        2.20972991      -2.20262599      -0.92132527        3       1.04591441      -1.00021756      -2.66644001
O        3.13455200      -3.29267287      -0.90597731        3      -1.77792525       1.40269160      -1.40660977
C        3.29816103      -3.54355001       0.35827771        3       1.38913989      -0.70111644       1.38399136
O        3.92212296      -4.43347120       0.83328068        3      -0.05068231      -0.22309875       0.06078124
O        2.71428394      -2.55500293       1.09104776        3       1.23530424      -1.55920863       3.30756402
H        1.47149301      -1.03928494       0.75463468        3      -0.67170882       1.00971997       0.42021045
H        1.93026602      -1.88170993      -1.89532030        3      -0.03519952       0.02931786      -0.17476915
23
Properties=species:S:1:pos:R:3:molID:I:1:forces:R:3 Nmols=2 Comp=EMC(1):VC(1) energy=-1207.058349609375 pbc="F F F"
C       -0.55368245       2.82042670       1.12392294        0      -4.09712553       1.65778947       1.19633710
O        0.61067361       2.90822387       1.08283591        0       1.90342641      -1.60541439      -0.45136029
O       -1.56757545       1.90141177       1.18038595        0       1.90578198      -0.61510396       0.01724176
O       -1.31567645       3.95195580       1.31354690        0      -0.56366873       0.02938533       0.06390190
C       -1.15945637       0.53953975       1.10869789        0       2.36655569      -1.29559088      -1.39820027
C       -0.60942441       5.19708776       1.24397397        0      -1.93498850      -0.19810057       0.78076649
C       -2.15627742      -0.55227125       1.12845790        0      -0.56667715      -1.68365622       2.79925394
H       -0.63897443       0.42297876       0.11855894        0      -0.24837500       0.41218787       0.24855602
H       -0.30251741       0.28352877       1.83223498        0      -1.15437210       0.83169991      -0.23500907
H       -0.11624742       5.35216379       2.20685101        0      -0.10514024       0.41789418      -0.07316065
H        0.10057957       4.94698191       0.51334596        0       0.99529368       1.12506807      -1.23092306
H       -1.82345545      -1.57423818       1.06068397        0       2.10027766      -0.35783106      -0.09945613
H       -2.64350533      -0.58475226       2.09431791        0      -0.07769716       0.90247893       1.19192564
H       -2.94465542      -0.71663326       0.51023495        0      -2.20198822       1.54315925      -2.94128466
H       -1.42349541       5.98950672       1.03843296        0       1.67869699      -1.16396594       0.13141111
C       -0.31447041      -3.58338714      -1.46412504        1       3.20043993      -2.03689146      -3.90190744
O        0.55831057      -2.43077517      -2.18514109        1      -5.89751768      -2.39773297       0.79073501
C        1.54243159      -2.25624514      -1.45400703        1       5.25967789      -1.35886383       0.93055928
O        1.86569357      -3.50974727      -0.79744804        1      -2.36559105      -0.93563288      -0.59602022
C        0.73536760      -4.48398829      -1.06666505        1      -0.01303959       7.72266579      -0.35082474
O        2.37544250      -1.38256919      -1.48509705        1      -1.43989706      -0.78691912       0.58576727
H        0.76844460      -5.31061125      -0.46970305        1      -0.03080681      -1.67279291       0.83331537
H       -1.12763941      -4.02895403      -2.15072918        1       1.28673410       1.46616662       1.70837522
21
Properties=species:S:1:pos:R:3:molID:I:1:forces:R:3 Nmols=2 Comp=PC(1):VC(1) energy=-1181.59423828125 pbc="F F F"
C       -2.77607775      -0.20562433      -1.53955948        0       2.10968590       1.31201613      -3.70622993
O       -2.36679482      -0.44564033      -0.26708949        0       0.38432610       0.41777912       1.57668769
C       -3.39124370      -0.18280132       0.55434549        0      -0.39934811      -4.19646835       3.40262485
O       -4.47453070       0.09359468      -0.11637549        0      -0.92249990       2.16568327      -1.52765834
C       -4.05466175       0.61176068      -1.47582543        0      -0.44381011      -0.33979267       3.32549477
C       -1.49644876       0.57169569      -2.21235037        0      -4.94447327      -0.58807683      -0.85488909
H       -2.93682575      -1.11523938      -2.09851551        0       0.00164649      -0.69094175      -0.22689630
O       -3.44998264      -0.63177931       1.70508349        0       0.60434335       1.99854875      -2.47150970
H       -3.87626767       1.68107963      -1.29247153        0       0.04274663      -0.14232832      -0.52834225
H       -4.94257879       0.44917867      -2.05512452        0       0.25647599      -0.20111141      -0.66064090
H       -1.58334780       1.45300567      -1.67489552        0       1.01027417       1.63229597       0.93374103
H       -0.69514275      -0.06060532      -2.13386655        0       1.94190717      -0.86308503       0.16954057
H       -1.74266374       0.85064769      -3.25860858        0       0.35872614      -0.50451899       0.56807733
C        3.14170218       0.07860968       1.90398347        1      -5.17884541      -1.17856598       2.83003116
O        4.31518841       0.20511667       1.47918546        1       4.51656437       0.71795285      -1.63602257
C        4.23197222       0.08495168       0.09893551        1       7.52710056      -0.33735532      -2.40342760
O        3.03761721      -0.08545133      -0.25864148        1      -3.55603004      -0.33648926      -1.14711952
C        2.26470423      -0.09372932       0.89008349        1      -1.07322645       0.34217685      -0.24255085
O        5.23632526       0.02389467      -0.65116549        1      -3.61049891       0.49696332       2.94614959
H        1.16768730      -0.07575033       0.74390954        1       1.14262402      -0.10073513       0.36006811
H        2.90786624      -0.14447433       2.95684457        1       0.23231167       0.39605272      -0.70712817
35
Properties=species:S:1:pos:R:3:molID:I:1:forces:R:3 Nmols=3 Comp=DMC(1):EMC(1):VC(1) energy=-1799.2252197265625 pbc="F F F"
C        0.77743095      -4.03600359       0.27467319        0       1.51112580      -2.84570909       0.63522255
O        1.28903091      -5.16320753       0.95929217        0       0.29022872       0.35925031      -0.68650877
C        0.75651294      -5.16368055       2.18931627        0       0.98762119      -1.66604638       2.77110505
O       -0.16066407      -4.14499569       2.23753524        0       0.20713329      -1.00048518       0.60854053
C       -0.13006607      -3.53275061       1.02234018        0      -3.14384723       3.37238169       2.51083684
O        1.10245395      -5.90156651       3.12484407        0      -1.43656361       2.56572866      -3.22668195
H       -0.73748505      -2.59803772       1.09414721        0       0.74069178      -1.19471216      -0.60780096
H        1.16478693      -3.86064363      -0.65364784        0       0.83381319       0.38865572      -1.97546101
C        2.39473701      -0.13567971      -2.00385976        1      -3.46863723       1.35065234       0.83785349
O        2.02117705       0.93080831      -1.53105283        1       0.89289773      -1.66255116      -0.68386900
O        1.56575596      -1.17551470      -2.29425788        1      -0.37777185       0.70666099       0.37422171
O        3.56410599      -0.51147169      -2.36361885        1       0.53262258      -1.47393644      -0.85538745
C        0.08413994      -1.07812166      -2.07079673        1       2.74543786       1.52550590      -1.01179004
C        4.63801384       0.32011929      -2.19520688        1       1.01959634       2.81587172       0.53902477
H       -0.02724706      -1.10631275      -0.99866283        1      -0.53939837      -0.00130768       0.10291165
H       -0.23066705      -0.09215672      -2.55662274        1      -0.06250921      -1.39255059       0.67669994
H       -0.13875505      -1.96449971      -2.61947680        1      -0.99814516      -0.22700590      -0.01132828
H        5.52925682      -0.25668570      -2.45086575        1      -0.22629851       0.40676594      -0.02689767
H        4.53675508       1.33490324      -2.72569370        1       0.19653606      -1.46725321      -0.27879262
H        4.66562796       0.72269827      -1.16748881        1       0.34585160      -0.63385868       0.26732111
C       -2.15529704       3.67527223       0.67875421        2      -1.53590560      -0.86405361       0.03824067
O       -2.19263101       3.17264032       1.81260824        2       0.73691773       1.62481022      -3.70721602
O       -2.98643708       4.62139940       0.16492219        2      -0.32599139       0.67762417       2.15220809
O       -1.49599302       3.30005240      -0.51957279        2      -0.33671618      -1.16527200       2.50423717
C       -4.00357485       5.33675241       1.03247321        2       0.58782589       0.52211571      -1.41011298
C       -0.48296008       2.28641725      -0.33284181        2       0.15324783       1.67004871       0.42293295
C       -4.74070215       6.38486719       0.09098719        2      -1.17335987       0.85928619       1.97563791
H       -4.58521795       4.56906319       1.51632619        2      -0.89540404      -0.45273441      -0.65433556
H       -3.61696410       5.83598614       1.95198119        2       0.70544904       0.12831309      -1.07199037
H        0.13538894       2.76807332       0.40759417        2       1.00916457       0.05176389       0.11514813
H       -0.68323606       1.33709824       0.08318919        2      -1.38404071      -0.92397505       0.52937448
H       -5.36767626       7.06059551       0.80738819        2       0.43486798      -1.66374934      -0.95605439
H       -4.12336302       7.20362139      -0.28329381        2       0.76876813      -0.82546556      -0.33405834
H       -5.39347601       5.98927641      -0.74339181        2       0.98044050      -0.08119726       1.25026977
H       -0.01203106       2.06862926      -1.25954878        2       0.22435065       0.51642847      -0.81350124
18
Properties=species:S:1:pos:R:3:molID:I:1:forces:R:3 Nmols=1 Comp=DEC(1) energy=-760.3469848632812 pbc="F F F"
C        0.21545677       0.27857527       0.78011549        0       3.01326704       1.79278862      -0.32545853
O        1.21367276       0.73387229       1.36984849        0      -3.62841034      -0.42523074      -0.79881275
O        0.36155477      -0.84742874       0.10499748        0       1.62015140      -1.68116117      -1.80642033
O       -0.96275026       0.95702928       0.50959450        0       2.77666831       2.32672954       4.31189775
C        1.44331980      -0.93667674      -0.97146153        0       0.35200536      -1.11984348      -0.03711230
C       -1.85403621       0.46545729      -0.32444653        0      -2.15558314      -2.16238165      -3.68477511
C        2.63966966      -1.96566975      -0.47162151        0      -2.72152066       1.98819578      -0.13003963
H        0.93263578      -1.43869877      -1.92214453        0       0.89980090       0.97895890       1.87624979
H        1.84146082       0.10294128      -1.22501552        0      -0.48331738      -1.24036384       0.50655198
C       -3.10192323       1.32403529      -0.93014354        0       3.10421324       0.66175932      -2.54668951
H       -1.13933623       0.15264128      -1.19133651        0      -2.08300447       0.28272626      -0.08433390
H       -2.34241629      -0.45918372       0.11588048        0       0.30150372       0.66944033      -0.38308102
H       -2.68730831       2.20029140      -1.67216051        0      -0.61266339      -2.01375866       1.86197853
H       -3.57766914       0.60869330      -1.68711853        0      -0.02372855       1.09552896       1.75007367
H       -3.60041618       1.88782930      -0.14118752        0      -0.31609941      -0.82807648      -0.19796008
H        3.46203876      -2.13866377      -1.12403250        0      -0.25269580      -0.35703516      -1.35189867
H        3.18801069      -1.56574667       0.34892547        0      -0.30639642       0.64922321       1.08345389
H        2.03143668      -2.80301762      -0.16429052        0       0.51581001      -0.61749983      -0.04362386
44
Properties=species:S:1:pos:R:3:molID:I:1:forces:R:3 Nmols=3 Comp=DEC(2):VC(1) energy=-2057.54150390625 pbc="F F F"
C        0.30511126       0.00994164      -3.06306362        0      -0.29724628       1.73561454      -1.16823173
O        0.63089526       0.82307667      -2.22752953        0      -0.29408389      -1.22009349      -0.92415690
O       -0.00509874      -1.26174140      -2.95426345        0       0.26913899      -0.25841793       2.11371589
O        0.08915926       0.25015363      -4.38722277        0       0.04639107       1.83951545      -0.69010550
C        0.16192526      -1.78970039      -1.59430158        0       1.05231571       0.65104270      -0.14493787
C        0.30054528       1.59053469      -5.00813961        0       0.44119650       1.16931343      -0.20652890
C       -0.06891674      -3.25976038      -1.62754750        0      -1.30953407      -1.16581833       0.35926759
H        1.23337328      -1.58371139      -1.28653550        0      -0.84140635       0.01087046      -0.24525622
H       -0.52705675      -1.30971134      -0.86590254        0       0.20038700       0.13341206      -0.62338418
C       -0.71971077       2.73079062      -4.76370478        0      -0.13834333      -0.96416497       1.35629249