77
Properties=species:S:1:pos:R:3:molID:I:1:forces:R:3 Nmols=6 Comp=DEC(1):DMC(2):EC(2):EMC(1) energy=-3736.53076171875 pbc="F F F"
C       -1.83385191       1.12909904      -5.27613973        0       0.92863607       0.61377096       5.25917768
O       -1.84544096       1.46962502      -4.08675813        0      -1.00857377      -0.12733847      -1.16574454
O       -0.81386599       1.47580007      -5.98193979        0       1.82567525       0.25412512      -2.83418846
O       -2.59086690       0.21176207      -5.77056789        0      -0.26821065      -0.20850265      -1.80977464
C        0.20941499       2.36939910      -5.45872688        0      -3.00045633       2.35581613      -1.02844012
C       -3.81860003      -0.19891795      -5.26081276        0      -2.67743540       2.65529323      -3.37926292
H        0.80830398       2.90585497      -6.22674083        0      -0.69384301      -0.52736247      -0.16410851
H       -0.43291500       3.20440104      -4.97875213        0       1.35877192      -0.99136829      -0.03555724
H        0.91850897       1.85523894      -4.91552973        0       0.91661346      -1.12811220       1.59411740
H       -4.38113103      -0.59572596      -6.14403677        0       0.54691243       0.25400653       0.03012747
H       -3.74950680      -0.95236996      -4.64341974        0       1.11491382      -4.06734753       3.58529091
H       -4.57596097       0.47631904      -4.82629776        0       0.96021211       0.91413081      -0.05186775
C        0.93029276      -1.72367896       4.76980173        1      -1.63641059       2.78183699      -0.17890882
O        1.70018986      -2.79686798       5.02000247        1       1.13106680      -1.15979266       0.40839005
C        2.70069674      -2.49618496       5.82866775        1       1.28018761      -0.11482036       2.54080343
O        2.56099371      -1.10588099       6.34901153        1      -1.20017433      -2.45881033      -1.91470146
C        1.28101782      -0.60152198       5.83027040        1       0.29219484      -1.14570796       0.55490065
H        1.20347885      -1.30759300       3.78276264        1      -0.49769184      -0.38187444       0.15366042
H       -0.15098518      -1.93216814       4.81819736        1       0.38384867      -0.21135604      -0.19835724
O        3.49970678      -3.34180202       6.20364343        1      -1.72312713       3.04109287      -0.83434319
H        1.38214985       0.33114596       5.23239957        1       0.19416457      -0.31861299       1.03680313
H        0.49058083      -0.50950404       6.69036447        1       1.53730679      -0.14661881      -1.42999578
C       -4.60754379       2.63073434      -1.18642231        2      -0.89772224      -0.96896112       0.98234373
O       -3.86599859       3.56218614      -0.95730635        2      -1.67042422      -2.24993443      -0.46600026
O       -5.11451897       1.62768712      -0.18845236        2      -0.22562253       2.21615481      -4.01618004
O       -5.24712166       2.21790232      -2.31521937        2       1.57243228       0.75381291       0.53314507
C       -4.60003265       1.74823417       1.06525466        2      -0.60263073       0.75458550       1.09708512
C       -5.03925499       2.96900930      -3.51630327        2      -1.06317651       1.24533021      -0.66252863
H       -4.77795299       0.83546521       1.58654371        2      -0.28781027      -0.48761523       0.47693616
H       -3.59713587       1.89867629       0.88943664        2       2.91653776       0.25159276       0.40343505
H       -4.96085295       2.62628331       1.62135462        2      -0.31225002      -0.26167804      -0.03225374
H       -5.65068277       2.53123226      -4.35545226        2       0.21691185       0.28263479       1.25062835
H       -5.26330265       4.03460016      -3.28051325        2      -0.82194638      -0.44159257       0.01889110
H       -4.08317455       3.16231622      -3.97079154        2       1.17244506      -1.09139872       0.41476637
C        3.70112078       3.70429236       0.08967109        3       6.07644701       0.08034691      -1.53336096
O        5.03244584       3.73635251      -0.11905291        3      -6.78299665      -1.18985701       1.34285033
O        2.81571381       2.67851359       0.19525609        3       2.12306643       0.56954110      -0.66908205
O        3.08117788       4.85766751       0.07332309        3      -1.63928294      -0.31077981       1.14012897
C        3.26174681       1.36178142      -0.17558291        3       0.32175785      -0.46858525      -0.62205875
C        3.68094962       6.17464835       0.18470508        3       1.90555525      -2.99796963       2.30428815
C        2.17372887       0.36188954       0.14077209        3      -0.99988377      -2.32365131       0.76193672
H        3.70850890       1.24178654      -1.19944086        3      -1.01188123       0.80267555       0.44923371
H        4.13883154       1.14406353       0.45944009        3      -1.11395884       1.19253671      -1.24026823
H        4.36655466       6.29060132       1.11052105        3      -1.08164465      -0.32053852      -1.47947419
H        4.13625376       6.21272236      -0.72750893        3       2.17812729       1.02469635      -2.27578640
H        2.44238679      -0.67672247      -0.00996991        3       1.04399276      -0.17952430      -0.91460192
H        2.12067168       0.27920658       1.24076614        3      -1.21541095       1.33228207      -0.58495057
H        1.15490680       0.20842052      -0.37262192        3       1.39144146       2.01209927       0.63631713
H        2.87197583       6.77449852       0.18342509        3      -2.45487690       2.16707063       0.53742206
C        5.10740771      -0.50345900       1.02780885        4      -0.24074280       1.52520037      -4.73998642
O        4.35471501       0.31792398       1.84430677        4      -0.19920444       2.32317495       2.10769796
C        3.66636004      -0.37496701       2.74321681        4      -0.01859272      -0.86356318       2.38443661
O        4.15639367      -1.62193796       2.71895176        4       1.65778041      -1.17530966      -0.41043520
C        5.33145490      -1.71580001       1.74970180        4       0.59238482       0.33035269       3.06029153
H        4.34884992      -0.76027503       0.20811480        4       1.47131884      -0.09463780       0.26456702
H        5.97438874       0.04610899       0.46399480        4      -1.32965016      -0.92033494       1.36827719
O        2.83755984       0.03950299       3.53108698        4       1.70864654      -0.59097201      -1.91920710
H        5.30468001      -2.59577712       1.21560675        4      -0.92467582      -1.94429898      -0.99611306
H        6.40798774      -1.73028704       2.11489779        4      -1.21691728       0.13602880       0.89009535
C       -2.68539130      -3.23184506      -1.38702589        5       0.39827940      -4.79451275       0.37493980
O       -2.17742836      -2.62260405      -2.23395889        5      -0.00613630       1.53747988      -2.81403756
O       -2.49298536      -3.04796116      -0.13055485        5      -1.10059750       0.36589313       2.08834004
O       -3.14275038      -4.62926118      -1.48948389        5      -1.32580471       2.96859670       2.08803749
C       -2.24853050      -1.72193925       0.28131015        5      -0.30919993       1.77645969       2.41991043
C       -3.28168141      -5.30291716      -2.69633477        5       3.14522839       1.75636733      -2.25744629
C       -2.26212441      -1.61312525       1.89669413        5      -1.45915127       0.21672899       1.32049060
H       -1.23248433      -1.42077510      -0.08426886        5      -0.77381814       0.03608544       0.29378188
H       -3.07519137      -1.00592212      -0.00700385        5       0.77702922      -0.82793081      -0.38272893
C       -3.71914732      -6.73270623      -2.45487183        5      -6.77238989       1.81229305      -2.09886193
H       -3.72624027      -4.69143121      -3.60921686        5      -0.40478197      -1.26360607       1.85374808
H       -2.20245134      -5.10441129      -2.97845786        5      -0.30017561      -1.92897296      -0.86064899
H       -4.31953823      -7.13499419      -3.40754193        5       2.22040558       0.51960486       1.36436236
H       -3.22057950      -7.50558822      -1.96553295        5       1.08097398      -0.19159988       0.50745356
H       -4.82099544      -6.49050919      -1.89762276        5       2.70505261      -0.84902573      -0.21112859
H       -2.01573240      -0.65080420       2.42909104        5      -0.08548614      -0.31982279      -1.58262944
H       -3.19746839      -1.92080514       2.54010922        5       1.08763170       0.25579453      -2.21567273
H       -1.52192747      -2.27279417       2.24705607        5       1.12081611      -1.07119620       0.11158249
77
Properties=species:S:1:pos:R:3:molID:I:1:forces:R:3 Nmols=6 Comp=DEC(1):DMC(2):EC(2):EMC(1) energy=-3736.89453125 pbc="F F F"
C       -1.89711549       1.16727947      -5.46392165        0       0.92899388       0.61447591       5.26022673
O       -1.90870454       1.50780545      -4.27454005        0      -1.01708674      -0.12120736      -1.16596174
O       -0.87712957       1.51398050      -6.16972171        0       1.82573175       0.25415003      -2.83433580
O       -2.65413048       0.24994250      -5.95834981        0      -0.26336384      -0.20903766      -1.81260514
C        0.14615141       2.40757953      -5.64650880        0      -3.00045395       2.35581279      -1.02845526
C       -3.88186361      -0.16073752      -5.44859468        0      -2.67952108       2.65501165      -3.37455869
H        0.74504040       2.94403540      -6.41452275        0      -0.69384170      -0.52735990      -0.16410983
H       -0.49617858       3.24258147      -5.16653405        0       1.35879076      -0.99134839      -0.03556520
H        0.85524539       1.89341937      -5.10331165        0       0.91661561      -1.12811136       1.59411991
H       -4.44439461      -0.55754553      -6.33181869        0       0.54615587       0.25321996       0.02702528
H       -3.81277038      -0.91418953      -4.83120166        0       1.11520207      -4.06558561       3.58402491
H       -4.63922455       0.51449947      -5.01407968        0       0.97385216       0.88930857      -0.05668890
C        1.00515537      -1.79498071       4.97058436        1      -1.65015292       2.74938941      -0.16220558
O        1.77505247      -2.86816973       5.22078510        1       1.13369131      -1.17375875       0.42124107
C        2.77555935      -2.56748671       6.02945038        1       1.28141248      -0.11739779       2.54000640
O        2.63585632      -1.17718274       6.54979416        1      -1.18659592      -2.47253656      -1.90271342
C        1.35588043      -0.67282373       6.03105303        1       0.28761852      -1.13665342       0.57470107
H        1.27834146      -1.37889475       3.98354527        1      -0.42043892      -0.31853932       0.07547843
H       -0.07612257      -2.00346989       5.01897999        1       0.36550200      -0.22106647      -0.18216345
O        3.57456939      -3.41310377       6.40442606        1      -1.72347546       3.04131198      -0.83428872
H        1.45701246       0.25984421       5.43318220        1       0.19821951      -0.27812827       1.02327132
H        0.56544344      -0.58080579       6.89114710        1       1.52780104      -0.15287274      -1.41523349
C       -4.77557771       2.71802684      -1.22835401        2      -0.89758599      -0.96907675       0.98299181
O       -4.03403251       3.64947864      -0.99923805        2      -1.67046511      -2.24998355      -0.46603340
O       -5.28255289       1.71497962      -0.23038406        2      -0.22561276       2.21615958      -4.01616049
O       -5.41515558       2.30519482      -2.35715107        2       1.57297516       0.75294852       0.53748679
C       -4.76806657       1.83552667       1.02332296        2      -0.60263634       0.75458413       1.09711123
C       -5.20728891       3.05630180      -3.55823497        2      -1.06504107       1.25102663      -0.66072392
H       -4.94598691       0.92275771       1.54461201        2      -0.28776881      -0.48765698       0.47690076
H       -3.76516979       1.98596879       0.84750494        2       2.91655445       0.25159562       0.40342736
H       -5.12888687       2.71357581       1.57942292        2      -0.31225157      -0.26167274      -0.03224736
H       -5.81871669       2.61852476      -4.39738396        2       0.20005387       0.30387390       1.24970138
H       -5.43133657       4.12189266      -3.32244495        2      -0.81966883      -0.43763959       0.02210557
H       -4.25120847       3.24960872      -4.01272324        2       1.18037200      -1.10348773       0.41232502
C        3.82155395       3.82044001       0.09169893        3       6.08147335       0.08810520      -1.53440928
O        5.15287901       3.85250016      -0.11702507        3      -6.78471804      -1.19054008       1.34315860
O        2.93614698       2.79466124       0.19728393        3       1.96883333       0.74603176      -0.67189336
O        3.20161105       4.97381516       0.07535093        3      -1.63852262      -0.31073260       1.14034343
C        3.38217998       1.47792907      -0.17355507        3       0.54865772      -0.69073606      -0.30858076
C        3.80138279       6.29079600       0.18673292        3       1.90542066      -2.99833703       2.30426311
C        2.29416204       0.47803719       0.14279993        3      -1.11089432      -2.36922550       0.72450328
H        3.82894207       1.35793419      -1.19741302        3      -0.97271633       0.75524318       0.49980509
H        4.25926471       1.26021118       0.46146793        3      -0.86422235       0.88838959      -0.79764348
H        4.48698783       6.40674897       1.11254889        3      -1.08162475      -0.32051343      -1.47945857
H        4.25668693       6.32887001      -0.72548109        3       2.17812347       1.02471817      -2.27578688
H        2.56281996      -0.56057482      -0.00794207        3       1.11631429      -0.16346312      -0.89483887
H        2.24110485       0.39535423       1.24279398        3      -1.00410962       1.24503183      -0.43836343
H        1.27533997       0.32456817      -0.37059408        3       1.36565661       1.99623168       0.60674357
H        2.99240900       6.89064617       0.18545293        3      -2.45488024       2.16710663       0.53742397
C        5.25752347      -0.52617391       1.10819517        4      -0.23784900       1.50208092      -4.44094372
O        4.50483077       0.29520907       1.92469309        4      -0.52525866       2.46636105       1.24618685
C        3.81647580      -0.39768192       2.82360313        4       0.02182686      -0.54313922       1.99989080
O        4.30650943      -1.64465287       2.79933808        4       1.63685513      -1.33154976      -0.36380816
C        5.48157066      -1.73851492       1.83008812        4       0.59923196       0.23686099       3.13743401
H        4.49896568      -0.78298994       0.28850112        4       1.17171073       0.16398004       0.15189743
H        6.12450450       0.02339408       0.54438112        4      -1.29042637      -0.83619314       1.35253942
O        2.98767560       0.01678808       3.61147330        4       1.68596971      -0.63609713      -1.87826753
H        5.45479577      -2.61849203       1.29599307        4      -0.91528302      -1.94902027      -0.98634958
H        6.55810350      -1.75300195       2.19528411        4      -1.21315014       0.13965735       0.88806117
C       -2.78287020      -3.35980008      -1.42325358        5       0.39827952      -4.79451323       0.37494385
O       -2.27490726      -2.75055907      -2.27018658        5      -0.00613570       1.53748059      -2.81404018
O       -2.59046426      -3.17591618      -0.16678254        5      -1.10060430       0.36588287       2.08833742
O       -3.24022928      -4.75721620      -1.52571158        5      -1.32580519       2.96859598       2.08803940
C       -2.34600940      -1.84989427       0.24508246        5      -0.30920017       1.77646017       2.41991544
C       -3.37916031      -5.43087218      -2.73256246        5       3.14522839       1.75636864      -2.25744796
C       -2.35960331      -1.74108027       1.86046644        5      -1.45915496       0.21673232       1.32048786
H       -1.32996323      -1.54873012      -0.12049655        5      -0.77201676       0.03732581       0.29356158
H       -3.17267027      -1.13387714      -0.04323154        5       0.77699399      -0.82788986      -0.38269207
C       -3.81662622      -6.86066125      -2.49109952        5      -6.77238941       1.81229448      -2.09886408
H       -3.82371917      -4.81938623      -3.64544455        5      -0.40478209      -1.26360643       1.85374856
H       -2.29993024      -5.23236631      -3.01468555        5      -0.30017620      -1.92897439      -0.86064982
H       -4.41701713      -7.26294921      -3.44376962        5       2.22040653       0.51960683       1.36436367
H       -3.31805840      -7.63354324      -2.00176064        5       1.08097637      -0.19160306       0.50745511
H       -4.91847434      -6.61846421      -1.93385045        5       2.70504904      -0.84902626      -0.21112853
H       -2.11321130      -0.77875922       2.39286335        5      -0.08548591      -0.31982398      -1.58262813
H       -3.29494729      -2.04876016       2.50388153        5       1.08763456       0.25579369      -2.21567345
H       -1.61940637      -2.40074919       2.21082838        5       1.12118185      -1.07110608       0.11227265
77
Properties=species:S:1:pos:R:3:molID:I:1:forces:R:3 Nmols=6 Comp=DEC(1):DMC(2):EC(2):EMC(1) energy=-3737.0947265625 pbc="F F F"
C       -1.96262001       1.20681233      -5.65835523        0       0.92926979       0.61472315       5.26034784
O       -1.97420906       1.54733831      -4.46897363        0      -1.01768839      -0.12079585      -1.16594958
O       -0.94263409       1.55351336      -6.36415529        0       1.82571471       0.25416517      -2.83432674
O       -2.71963500       0.28947536      -6.15278339        0      -0.26106644      -0.20944613      -1.81396413
C        0.08064689       2.44711239      -5.84094238        0      -3.00046158       2.35580778      -1.02845645
C       -3.94736813      -0.12120466      -5.64302826        0      -2.67926741       2.65358138      -3.37288594
H        0.67953588       2.98356826      -6.60895633        0      -0.69384098      -0.52735913      -0.16411000
H       -0.56168310       3.28211433      -5.36096763        0       1.35879219      -0.99134660      -0.03556505
H        0.78974087       1.93295223      -5.29774523        0       0.91661608      -1.12811124       1.59412062
H       -4.50989913      -0.51801267      -6.52625227        0       0.54580176       0.25344089       0.02639705
H       -3.87827490      -0.87465667      -5.02563524        0       1.11491394      -4.06362534       3.58304501
H       -4.70472907       0.55403233      -5.20851326        0       0.98241198       0.87369740      -0.06139633
C        1.08266978      -1.86880812       5.17847916        1      -1.64724338       2.73731756      -0.17250443
O        1.85256688      -2.94199714       5.42867990        1       1.13850009      -1.19174838       0.43586957
C        2.85307376      -2.64131412       6.23734518        1       1.28278446      -0.11907303       2.53985476
O        2.71337073      -1.25101015       6.75768896        1      -1.17223859      -2.48726296      -1.89123440
C        1.43339484      -0.74665114       6.23894783        1       0.29438090      -1.10896933       0.57492244
H        1.35585587      -1.45272216       4.19144007        1      -0.36350417      -0.26471743       0.01751423
H        0.00139184      -2.07729730       5.22687479        1       0.35427970      -0.22856146      -0.17346448
O        3.65208380      -3.48693118       6.61232086        1      -1.72382903       3.04149127      -0.83433974
H        1.53452687       0.18601680       5.64107700        1       0.22076127      -0.25764632       0.99360776
H        0.64295785      -0.65463320       7.09904190        1       1.52336049      -0.15431799      -1.40895474
C       -4.94956378       2.80841144      -1.27177102        2      -0.89748442      -0.96915197       0.98347020
O       -4.20801858       3.73986324      -1.04265506        2      -1.67049420      -2.25001574      -0.46605745
O       -5.45653896       1.80536422      -0.27380107        2      -0.22560763       2.21615744      -4.01614094
O       -5.58914165       2.39557942      -2.40056808        2       1.57316482       0.75256312       0.53930056
C       -4.94205264       1.92591127       0.97990595        2      -0.60260427       0.75459093       1.09713352
C       -5.38127498       3.14668640      -3.60165198        2      -1.06507850       1.24992466      -0.66246688
H       -5.11997298       1.01314231       1.50119500        2      -0.28776842      -0.48766336       0.47690800
H       -3.93915586       2.07635339       0.80408793        2       2.91653180       0.25159371       0.40342781
H       -5.30287294       2.80396041       1.53600591        2      -0.31225055      -0.26166654      -0.03224036
H       -5.99270276       2.70890936      -4.44080097        2       0.18879116       0.32043517       1.25463605
H       -5.60532264       4.21227726      -3.36586196        2      -0.81906861      -0.43692172       0.02284890
H       -4.42519454       3.33999332      -4.05614025        2       1.18067384      -1.10457706       0.41192505
C        3.94625314       3.94070187       0.09379861        3       6.07496595       0.10480639      -1.53405356
O        5.27757820       3.97276202      -0.11492539        3      -6.78552151      -1.19057643       1.34314740
O        3.06084617       2.91492310       0.19938361        3       1.87940907       0.85448253      -0.69378114
O        3.32631024       5.09407702       0.07745061        3      -1.63815355      -0.30841827       1.14013910
C        3.50687917       1.59819093      -0.17145539        3       0.65797961      -0.67048216      -0.26933080
C        3.92608198       6.41105786       0.18883260        3       1.90540695      -2.99828577       2.30426669
C        2.41886123       0.59829905       0.14489961        3      -1.27042413      -2.38109875       0.69574231
H        3.95364126       1.47819605      -1.19531334        3      -0.97924256       0.70679545       0.48221636
H        4.38396390       1.38047304       0.46356761        3      -0.61613250       0.46018597      -0.22310579
H        4.61168702       6.52701083       1.11464857        3      -1.08160043      -0.32048690      -1.47943795
H        4.38138612       6.44913187      -0.72338141        3       2.17811680       1.02471972      -2.27578497
H        2.68751915      -0.44031296      -0.00584239        3       1.21387005      -0.18591201      -0.86306864
H        2.36580404       0.51561609       1.24489366        3      -0.82084644       1.12939286      -0.25602305
H        1.40003916       0.44483003      -0.36849440        3       1.33696508       1.98876810       0.58313948
H        3.11710819       7.01090803       0.18755261        3      -2.45488071       2.16712141       0.53742492
C        5.41295666      -0.54969343       1.19142895        4      -0.37572312       1.73467159      -4.39535141
O        4.66026396       0.27168955       2.00792687        4      -0.49821472       2.60394168       0.70497251
C        3.97190899      -0.42120144       2.90683691        4      -0.19581896      -0.30590135       1.78600240
O        4.46194262      -1.66817239       2.88257186        4       1.63220131      -1.40364182      -0.33577585
C        5.63700385      -1.76203444       1.91332190        4       0.59824896       0.18775189       3.18793178
H        4.65439887      -0.80650946       0.37173490        4       1.03874731       0.20460027       0.09323359
H        6.27993769      -0.00012544       0.62761490        4      -1.24600911      -0.82945895       1.35319638
O        3.14310879      -0.00673144       3.69470708        4       1.66247857      -0.72846538      -1.87209547
H        5.61022896      -2.64201155       1.37922685        4      -0.91074848      -1.95369291      -0.98189485
H        6.71353669      -1.77652147       2.27851789        4      -1.21232522       0.14267296       0.88701981
C       -2.88380203      -3.49228756      -1.46076453        5       0.39827302      -4.79452419       0.37494898
O       -2.37583909      -2.88304655      -2.30769753        5      -0.00613034       1.53748715      -2.81404781
O       -2.69139609      -3.30840366      -0.20429349        5      -1.10060525       0.36588025       2.08833385
O       -3.34116111      -4.88970368      -1.56322253        5      -1.32580328       2.96860504       2.08804321
C       -2.44694123      -1.98238175       0.20757151        5      -0.30919993       1.77646065       2.41991758
C       -3.48009214      -5.56335966      -2.77007341        5       3.14522696       1.75636458      -2.25744939
C       -2.46053514      -1.87356775       1.82295549        5      -1.45915651       0.21673220       1.32049131
H       -1.43089506      -1.68121760      -0.15800750        5      -0.77201498       0.03732678       0.29356265
H       -3.27360210      -1.26636462      -0.08074249        5       0.77699304      -0.82788873      -0.38268745
C       -3.91755805      -6.99314873      -2.52861047        5      -6.77239418       1.81229508      -2.09886456
H       -3.92465100      -4.95187371      -3.68295550        5      -0.40478143      -1.26360559       1.85374844
H       -2.40086207      -5.36485379      -3.05219650        5      -0.30017579      -1.92897534      -0.86065066
H       -4.51794896      -7.39543669      -3.48128057        5       2.22040844       0.51960510       1.36436319
H       -3.41899023      -7.76603072      -2.03927159        5       1.08097458      -0.19160149       0.50745428
H       -5.01940617      -6.75095169      -1.97136140        5       2.70505476      -0.84902579      -0.21112812
H       -2.21414313      -0.91124670       2.35535240        5      -0.08548677      -0.31982517      -1.58263099
H       -3.39587912      -2.18124764       2.46637058        5       1.08763480       0.25579605      -2.21567655
H       -1.72033820      -2.53323667       2.17331743        5       1.12118328      -1.07110596       0.11227104
77
Properties=species:S:1:pos:R:3:molID:I:1:forces:R:3 Nmols=6 Comp=DEC(1):DMC(2):EC(2):EMC(1) energy=-3737.208984375 pbc="F F F"
C       -2.03044485       1.24774554      -5.85967609        0       0.92934096       0.61478472       5.26038074
O       -2.04203390       1.58827152      -4.67029449        0      -1.01769352      -0.12080044      -1.16596103
O       -1.01045893       1.59444657      -6.56547615        0       1.82571030       0.25417483      -2.83432126
O       -2.78745984       0.33040857      -6.35410425        0      -0.26076341      -0.20972669      -1.81421518
C        0.01282205       2.48804560      -6.04226324        0      -3.00046206       2.35580111      -1.02845776
C       -4.01519297      -0.08027145      -5.84434912        0      -2.67803192       2.65236926      -3.37267661
H        0.61171104       3.02450147      -6.81027719        0      -0.69384134      -0.52736020      -0.16410935
H       -0.62950794       3.32304754      -5.56228849        0       1.35879302      -0.99134642      -0.03556553
H        0.72191603       1.97388544      -5.49906609        0       0.91661346      -1.12810814       1.59411788
H       -4.57772397      -0.47707946      -6.72757313        0       0.54580522       0.25391340       0.02708209
H       -3.94609974      -0.83372346      -5.22695610        0       1.11446607      -4.06209946       3.58211660
H       -4.77255391       0.59496554      -5.40983412        0       0.97177738       0.89002389      -0.05609888
C        1.16292992      -1.94525067       5.39373806        1      -1.64190853       2.73768425      -0.19261372
O        1.93282702      -3.01843969       5.64393880        1       1.14522457      -1.21223950       0.45179987
C        2.93333390      -2.71775667       6.45260408        1       1.28366327      -0.11948228       2.54015636
O        2.79363087      -1.32745270       6.97294786        1      -1.16451502      -2.49540925      -1.88572264
C        1.51365498      -0.82309369       6.45420673        1       0.29865324      -1.09066188       0.58420932
H        1.43611601      -1.52916471       4.40669897        1      -0.35519803      -0.24451889      -0.01461643
H        0.08165198      -2.15373985       5.44213369        1       0.34937036      -0.23287910      -0.16978684
O        3.73234394      -3.56337373       6.82757976        1      -1.72398961       3.04156208      -0.83440882
H        1.61478701       0.10957425       5.85633590        1       0.24678013      -0.24583858       0.96164417
H        0.72321799      -0.73107575       7.31430080        1       1.52121401      -0.15499216      -1.40612721
C       -5.12971282       2.90199766      -1.31672595        2      -0.89749908      -0.96920753       0.98356438
O       -4.38816762       3.83344946      -1.08760999        2      -1.67049074      -2.25001097      -0.46606809
O       -5.63668800       1.89895044      -0.31875600        2      -0.22560155       2.21615362      -4.01612473
O       -5.76929069       2.48916564      -2.44552301        2       1.57322621       0.75262713       0.53955293
C       -5.12220168       2.01949749       0.93495102        2      -0.60263503       0.75459439       1.09714723